LAMMPS Description

     80  atoms
     91  bonds
     154  angles
     194  dihedrals
     72  impropers

     16  atom types
     17  bond types
     20  angle types
     28  dihedral types
     4  improper types

  -100.0 100.0 xlo xhi
  -100.0 100.0 ylo yhi
  -100.0 100.0 zlo zhi

Masses
    
    # PEDOT
    1 32.06
    2 12.011
    3 1.008
    4 15.999
    5 12.011
    6 1.008
    7 12.011
    # TOS
    8  1.008
    9  12.011
    10 1.008
    11 12.011
    12 32.06
    13 15.999
    14 12.011
    # SPCE
    15  16.00
    16  1.008
#--------------------------------------
Pair Coeffs
    # PEDOT
    1 0.25 3.55
    2 0.07 3.55
    3 0.03 2.42
    4 0.14 2.9
    5 0.066 3.5
    6 0.03 2.5
    7 0.07 3.55
    # TOS
    8   0.03 2.5
    9   0.07 3.55
    10  0.03 2.42
    11  0.066 3.5
    12  0.25 3.55
    13  0.17 2.96
    14  0.07 3.55
    # SPCE
    15  0.155300    3.166000
    16  0.000000    2.058000
#--------------------------------------
Bond Coeffs
    # PEDOT
    1 268.0 1.529
    2 320.0 1.41
    3 340.0 1.09
    4 250.0 1.76
    5 450.0 1.364
    6 469.0 1.4
    7 469.0 1.4
    8 469.0 1.4
    9 367.0 1.08
    # TOS
    10  340.0 1.09
    11  317.0 1.51
    12  700.0 1.44
    13  469.0 1.4
    14  469.0 1.4
    15  367.0 1.08
    16  340.0 1.77
    # SPCE
    17  1000.000000    1.000000
#--------------------------------------
Angle Coeffs
    # PEDOT
    1  50.0 109.5
    2  33.0 107.8
    3  35.0 109.5
    4  37.5 110.7
    5  75.0 111.0
    6  63.0 120.0
    7  63.0 120.0
    8  70.0 120.0
    9  70.0 120.0
    10 85.0 119.4
    11 85.0 119.4
    12 35.0 120.0
    # TOS
    11  33.0 107.8
    12  35.0 109.5
    13  63.0 120.0
    14  63.0 120.0
    15  70.0 120.0
    16  35.0 120.0
    17  85.0 119.4
    18  104.0 119.0
    19  74.0 107.2
    # SPCE
    20  1000.000000  109.470000
#--------------------------------------
Dihedral Coeffs
    # PEDOT
    1  -0.55 0.0 0.0 0.0
    2  0.0 0.0 0.468 0.0
    3  0.0 0.0 0.3 0.0
    4  0.0 0.0 0.76 0.0
    5  0.0 3.0 0.0 0.0
    6  0.0 3.0 0.0 0.0
    7  0.0 7.25 0.0 0.0
    8  0.0 7.25 0.0 0.0
    9  0.0 7.25 0.0 0.0
    10 0.0 7.25 0.0 0.0
    11 0.0 7.25 0.0 0.0
    12 0.0 7.25 0.0 0.0
    13 0.0 7.25 0.0 0.0
    14 0.0 7.25 0.0 0.0
    15 0.0 7.25 0.0 0.0
    16 0.0 7.25 0.0 0.0
    17 0.0 7.25 0.0 0.0
    18 0.0 7.25 0.0 0.0
    # TOS
    19  0.0 0.0 0.0 0.0
    20  0.0 7.25 0.0 0.0
    21  0.0 7.25 0.0 0.0
    22  0.0 7.25 0.0 0.0
    23  0.0 7.25 0.0 0.0
    24  0.0 7.25 0.0 0.0
    25  0.0 7.25 0.0 0.0
    26  0.0 7.25 0.0 0.0
    27  0.0 7.25 0.0 0.0
    28  0.0 0.0 0.0 0.0
#--------------------------------------
Improper Coeffs
    # PEDOT
    1 2.5 180
    2 2.5 180
    # TOS
    3 2.5 180
    4 2.5 180


Atoms

1 1 7 0.090028 -7.872 7.404 2.551
2 1 7 0.111622 -6.508 7.405 2.557
3 1 5 -0.117169 -6.526 9.69 2.209
4 1 5 -0.119752 -7.861 9.675 2.935
5 1 2 0.214136 -8.455 6.097 2.553
6 1 2 0.082798 -5.915 6.096 2.583
7 1 6 0.161445 -5.92 10.541 2.52
8 1 6 0.166061 -8.461 10.543 2.66
9 1 2 -0.102357 -9.799 5.808 2.542
10 1 7 0.151579 -10.386 4.512 2.552
11 1 7 0.175368 -11.768 4.521 2.528
12 1 2 0.284295 -12.322 5.812 2.512
13 1 5 -0.155860 -10.431 2.205 2.823
14 1 5 0.004649 -11.753 2.264 2.078
15 1 6 0.155917 -9.817 1.375 2.473
16 1 6 0.150388 -12.357 1.384 2.3
17 1 2 -0.386687 -13.698 6.125 2.482
18 1 7 0.369929 -14.258 7.402 2.482
19 1 7 0.235551 -15.675 7.398 2.45
20 1 2 -0.319379 -16.185 6.129 2.442
21 1 5 -0.170614 -14.31 9.713 2.757
22 1 5 0.063542 -15.631 9.658 2.012
23 1 6 0.152709 -14.472 9.791 3.837
24 1 6 0.085837 -15.464 9.592 0.929
25 1 4 -0.080434 -9.654 3.398 2.579
26 1 4 -0.273739 -12.515 3.396 2.508
27 1 4 -0.332638 -16.403 8.536 2.44
28 1 4 -0.153925 -13.53 8.524 2.505
29 1 4 -0.112778 -8.624 8.522 2.556
30 1 4 -0.097559 -5.76 8.516 2.534
31 1 1 -0.255446 -7.195 4.867 2.58
32 1 1 -0.188699 -11.079 7.033 2.525
33 1 1 0.121594 -14.973 4.917 2.464
34 1 6 0.136612 -6.671 9.716 1.124
35 1 6 0.134055 -7.714 9.657 4.021
36 1 6 0.150264 -13.696 10.546 2.414
37 1 6 0.133325 -16.228 10.543 2.232
38 1 6 0.103293 -11.59 2.335 0.996
39 1 6 0.149596 -10.591 2.12 3.902
40 1 2 0.077588 -4.583 5.81 2.591
41 1 7 0.104659 -3.991 4.501 2.628
42 1 1 -0.248957 -3.303 7.039 2.577
43 1 7 0.102236 -2.626 4.503 2.634
44 1 4 -0.083664 -4.738 3.39 2.665
45 1 2 0.198804 -2.044 5.809 2.613
46 1 4 -0.126919 -1.874 3.385 2.641
47 1 5 -0.141249 -3.972 2.221 3.006
48 1 2 -0.079381 -0.699 6.099 2.61
49 1 5 -0.091813 -2.638 2.227 2.278
50 1 6 0.140234 -3.825 2.21 4.091
51 1 6 0.165542 -4.578 1.366 2.707
52 1 7 0.125163 -0.113 7.394 2.593
53 1 1 -0.187539 0.581 4.874 2.665
54 1 6 0.126848 -2.787 2.23 1.192
55 1 6 0.161320 -2.038 1.363 2.564
56 1 7 0.192030 1.269 7.385 2.605
57 1 4 -0.066553 -0.845 8.508 2.568
58 1 2 0.264241 1.823 6.094 2.647
59 1 4 -0.279906 2.018 8.509 2.573
60 1 5 -0.179429 -0.074 9.707 2.802
61 1 2 -0.369916 3.2 5.782 2.663
62 1 5 0.012190 1.267 9.629 2.094
63 1 6 0.160386 -0.678 10.528 2.416
64 1 6 0.157689 0.058 9.819 3.883
65 1 7 0.364625 3.761 4.506 2.704
66 1 1 0.116470 4.475 6.99 2.61
67 1 6 0.149948 1.866 10.515 2.309
68 1 6 0.103952 1.132 9.531 1.011
69 1 7 0.228139 5.178 4.512 2.711
70 1 4 -0.148071 3.033 3.385 2.741
71 1 2 -0.309276 5.687 5.78 2.66
72 1 4 -0.338298 5.907 3.374 2.755
73 1 5 -0.179639 3.809 2.184 2.533
74 1 3 0.281818 6.735 6.051 2.656
75 1 5 0.077830 5.143 2.274 3.25
76 1 6 0.152060 3.202 1.37 2.928
77 1 6 0.153625 3.951 2.054 1.456
78 1 6 0.129851 5.737 1.379 3.061
79 1 6 0.083948 4.997 2.391 4.331
80 1 3 0.281855 -17.233 5.859 2.415

Bonds

1 4 5 31
2 4 6 31
3 7 2 6
4 8 1 2
5 7 1 5
6 5 2 30
7 2 3 30
8 3 3 7
9 3 3 34
10 1 3 4
11 3 4 8
12 3 4 35
13 2 4 29
14 5 1 29
15 9 20 80
16 4 12 32
17 4 9 32
18 7 9 10
19 8 10 11
20 7 11 12
21 5 10 25
22 2 13 25
23 3 13 15
24 3 13 39
25 1 13 14
26 3 14 16
27 3 14 38
28 2 14 26
29 5 11 26
30 4 17 33
31 4 20 33
32 7 19 20
33 8 18 19
34 7 17 18
35 5 18 28
36 2 21 28
37 3 21 23
38 3 21 36
39 1 21 22
40 3 22 24
41 3 22 37
42 2 22 27
43 5 19 27
44 4 40 42
45 4 42 45
46 7 40 41
47 8 41 43
48 7 43 45
49 5 43 46
50 2 46 49
51 3 49 55
52 3 49 54
53 1 47 49
54 3 47 50
55 3 47 51
56 2 44 47
57 5 41 44
58 4 48 53
59 4 53 58
60 7 48 52
61 8 52 56
62 7 56 58
63 5 52 57
64 2 57 60
65 3 60 64
66 3 60 63
67 1 60 62
68 3 62 67
69 3 62 68
70 2 59 62
71 5 56 59
72 4 61 66
73 4 66 71
74 7 61 65
75 8 65 69
76 7 69 71
77 5 65 70
78 2 70 73
79 3 73 76
80 3 73 77
81 1 73 75
82 3 75 79
83 3 75 78
84 2 72 75
85 5 69 72
86 9 71 74
87 6 5 9
88 6 12 17
89 6 6 40
90 6 45 48
91 6 58 61

Angles

1 1 3 4 29
2 1 4 3 30
3 1 13 14 26
4 1 14 13 25
5 1 21 22 27
6 1 22 21 28
7 1 46 49 47
8 1 44 47 49
9 1 59 62 60
10 1 57 60 62
11 1 72 75 73
12 1 70 73 75
13 2 7 3 34
14 2 8 4 35
15 2 15 13 39
16 2 16 14 38
17 2 23 21 36
18 2 24 22 37
19 2 50 47 51
20 2 54 49 55
21 2 63 60 64
22 2 67 62 68
23 2 76 73 77
24 2 78 75 79
25 3 15 13 25
26 3 25 13 39
27 3 16 14 26
28 3 26 14 38
29 3 24 22 27
30 3 27 22 37
31 3 23 21 28
32 3 28 21 36
33 3 8 4 29
34 3 29 4 35
35 3 7 3 30
36 3 30 3 34
37 3 44 47 50
38 3 44 47 51
39 3 46 49 55
40 3 46 49 54
41 3 57 60 64
42 3 57 60 63
43 3 59 62 67
44 3 59 62 68
45 3 70 73 76
46 3 70 73 77
47 3 72 75 79
48 3 72 75 78
49 4 3 4 8
50 4 3 4 35
51 4 4 3 7
52 4 4 3 34
53 4 13 14 16
54 4 13 14 38
55 4 14 13 15
56 4 14 13 39
57 4 21 22 24
58 4 21 22 37
59 4 22 21 23
60 4 22 21 36
61 4 47 49 55
62 4 47 49 54
63 4 49 47 50
64 4 49 47 51
65 4 60 62 67
66 4 60 62 68
67 4 62 60 64
68 4 62 60 63
69 4 73 75 79
70 4 73 75 78
71 4 75 73 76
72 4 75 73 77
73 5 2 30 3
74 5 1 29 4
75 5 10 25 13
76 5 11 26 14
77 5 18 28 21
78 5 19 27 22
79 5 41 44 47
80 5 43 46 49
81 5 52 57 60
82 5 56 59 62
83 5 65 70 73
84 5 69 72 75
85 6 1 5 9
86 6 2 6 40
87 6 5 9 10
88 6 11 12 17
89 6 12 17 18
90 6 6 40 41
91 6 43 45 48
92 6 45 48 52
93 6 56 58 61
94 6 58 61 65
95 7 1 2 6
96 7 2 1 5
97 7 10 11 12
98 7 9 10 11
99 7 18 19 20
100 7 17 18 19
101 7 41 43 45
102 7 40 41 43
103 7 52 56 58
104 7 48 52 56
105 7 65 69 71
106 7 61 65 69
107 8 9 10 25
108 8 12 11 26
109 8 20 19 27
110 8 17 18 28
111 8 5 1 29
112 8 6 2 30
113 8 40 41 44
114 8 45 43 46
115 8 48 52 57
116 8 58 56 59
117 8 61 65 70
118 8 71 69 72
119 9 11 10 25
120 9 10 11 26
121 9 18 19 27
122 9 19 18 28
123 9 2 1 29
124 9 1 2 30
125 9 43 41 44
126 9 41 43 46
127 9 56 52 57
128 9 52 56 59
129 9 69 65 70
130 9 65 69 72
131 10 9 5 31
132 10 31 6 40
133 10 17 12 32
134 10 5 9 32
135 10 12 17 33
136 10 6 40 42
137 10 42 45 48
138 10 45 48 53
139 10 53 58 61
140 10 58 61 66
141 11 1 5 31
142 11 2 6 31
143 11 11 12 32
144 11 10 9 32
145 11 18 17 33
146 11 19 20 33
147 11 41 40 42
148 11 42 45 43
149 11 52 48 53
150 11 53 58 56
151 11 65 61 66
152 11 66 71 69
153 12 19 20 80
154 12 69 71 74

Dihedrals

1 1 25 13 14 26
2 1 27 22 21 28
3 1 29 4 3 30
4 1 44 47 49 46
5 1 57 60 62 59
6 1 70 73 75 72
7 2 16 14 13 25
8 2 25 13 14 38
9 2 15 13 14 26
10 2 26 14 13 39
11 2 23 21 22 27
12 2 27 22 21 36
13 2 24 22 21 28
14 2 28 21 22 37
15 2 7 3 4 29
16 2 29 4 3 34
17 2 8 4 3 30
18 2 30 3 4 35
19 2 44 47 49 55
20 2 44 47 49 54
21 2 46 49 47 50
22 2 46 49 47 51
23 2 57 60 62 67
24 2 57 60 62 68
25 2 59 62 60 64
26 2 59 62 60 63
27 2 70 73 75 79
28 2 70 73 75 78
29 2 72 75 73 76
30 2 72 75 73 77
31 3 7 3 4 8
32 3 7 3 4 35
33 3 8 4 3 34
34 3 15 13 14 16
35 3 15 13 14 38
36 3 16 14 13 39
37 3 23 21 22 24
38 3 23 21 22 37
39 3 24 22 21 36
40 3 34 3 4 35
41 3 36 21 22 37
42 3 38 14 13 39
43 3 50 47 49 55
44 3 50 47 49 54
45 3 51 47 49 55
46 3 51 47 49 54
47 3 63 60 62 67
48 3 63 60 62 68
49 3 64 60 62 67
50 3 64 60 62 68
51 3 76 73 75 79
52 3 76 73 75 78
53 3 77 73 75 79
54 3 77 73 75 78
55 4 2 30 3 7
56 4 1 29 4 8
57 4 10 25 13 15
58 4 11 26 14 16
59 4 18 28 21 23
60 4 19 27 22 24
61 4 2 30 3 34
62 4 1 29 4 35
63 4 18 28 21 36
64 4 19 27 22 37
65 4 11 26 14 38
66 4 10 25 13 39
67 4 41 44 47 50
68 4 41 44 47 51
69 4 43 46 49 54
70 4 43 46 49 55
71 4 52 57 60 63
72 4 52 57 60 64
73 4 56 59 62 67
74 4 56 59 62 68
75 4 65 70 73 76
76 4 65 70 73 77
77 4 69 72 75 78
78 4 69 72 75 79
79 5 3 30 2 6
80 5 4 29 1 5
81 5 9 10 25 13
82 5 12 11 26 14
83 5 17 18 28 21
84 5 20 19 27 22
85 5 40 41 44 47
86 5 45 43 46 49
87 5 48 52 57 60
88 5 58 56 59 62
89 5 61 65 70 73
90 5 71 69 72 75
91 6 1 2 30 3
92 6 2 1 29 4
93 6 11 10 25 13
94 6 10 11 26 14
95 6 19 18 28 21
96 6 18 19 27 22
97 6 43 41 44 47
98 6 41 43 46 49
99 6 56 52 57 60
100 6 52 56 59 62
101 6 69 65 70 73
102 6 65 69 72 75
103 7 31 5 9 32
104 7 31 6 40 42
105 7 32 12 17 33
106 7 42 45 48 53
107 7 53 58 61 66
108 8 25 10 9 32
109 8 26 11 12 32
110 8 27 19 20 33
111 8 28 18 17 33
112 8 29 1 5 31
113 8 30 2 6 31
114 8 42 40 41 44
115 8 42 45 43 46
116 8 53 48 52 57
117 8 53 58 56 59
118 8 66 61 65 70
119 8 66 71 69 72
120 9 25 10 11 26
121 9 27 19 18 28
122 9 29 1 2 30
123 9 44 41 43 46
124 9 57 52 56 59
125 9 70 65 69 72
126 10 10 9 5 31
127 10 31 6 40 41
128 10 18 17 12 32
129 10 1 5 9 32
130 10 11 12 17 33
131 10 2 6 40 42
132 10 42 45 48 52
133 10 43 45 48 53
134 10 53 58 61 65
135 10 56 58 61 66
136 11 2 1 5 31
137 11 1 2 6 31
138 11 10 11 12 32
139 11 11 10 9 32
140 11 19 18 17 33
141 11 18 19 20 33
142 11 42 40 41 43
143 11 41 43 45 42
144 11 53 48 52 56
145 11 52 56 58 53
146 11 66 61 65 69
147 11 65 69 71 66
148 12 5 9 10 25
149 12 17 12 11 26
150 12 12 17 18 28
151 12 9 5 1 29
152 12 30 2 6 40
153 12 6 40 41 44
154 12 46 43 45 48
155 12 45 48 52 57
156 12 59 56 58 61
157 12 58 61 65 70
158 13 12 11 10 25
159 13 9 10 11 26
160 13 17 18 19 27
161 13 20 19 18 28
162 13 6 2 1 29
163 13 5 1 2 30
164 13 44 41 43 45
165 13 40 41 43 46
166 13 57 52 56 58
167 13 48 52 56 59
168 13 70 65 69 71
169 13 61 65 69 72
170 14 27 19 20 80
171 14 72 69 71 74
172 15 5 1 2 6
173 15 9 10 11 12
174 15 17 18 19 20
175 15 40 41 43 45
176 15 48 52 56 58
177 15 61 65 69 71
178 16 1 5 9 10
179 16 2 6 40 41
180 16 11 12 17 18
181 16 43 45 48 52
182 16 56 58 61 65
183 17 1 2 6 40
184 17 2 1 5 9
185 17 10 11 12 17
186 17 5 9 10 11
187 17 12 17 18 19
188 17 41 43 45 48
189 17 6 40 41 43
190 17 52 56 58 61
191 17 45 48 52 56
192 17 58 61 65 69
193 18 18 19 20 80
194 18 65 69 71 74

Impropers

1 1 19 20 80 33
2 1 66 71 74 69
3 1 1 5 31 9
4 1 2 6 31 40
5 1 5 9 32 10
6 1 11 12 32 17
7 1 12 17 33 18
8 1 6 40 42 41
9 1 43 42 45 48
10 1 45 48 53 52
11 1 56 53 58 61
12 1 58 61 66 65
13 1 19 20 33 80
14 1 69 66 71 74
15 1 1 5 9 31
16 1 2 6 40 31
17 1 11 12 17 32
18 1 10 5 9 32
19 1 18 12 17 33
20 1 41 6 40 42
21 1 42 45 48 43
22 1 52 45 48 53
23 1 53 58 61 56
24 1 65 58 61 66
25 1 66 69 71 74
26 1 33 19 20 80
27 1 5 9 10 32
28 1 6 40 41 42
29 1 9 1 5 31
30 1 12 17 18 33
31 1 17 11 12 32
32 1 31 2 6 40
33 1 45 48 52 53
34 1 42 43 45 48
35 1 58 61 65 66
36 1 53 56 58 61
37 2 5 1 2 29
38 2 6 1 2 30
39 2 9 10 11 25
40 2 12 10 11 26
41 2 17 18 19 28
42 2 20 18 19 27
43 2 40 41 43 44
44 2 45 41 43 46
45 2 48 52 56 57
46 2 58 52 56 59
47 2 61 65 69 70
48 2 71 65 69 72
49 2 2 1 29 5
50 2 1 2 30 6
51 2 9 10 25 11
52 2 10 11 26 12
53 2 17 18 28 19
54 2 18 19 27 20
55 2 40 41 44 43
56 2 41 43 46 45
57 2 48 52 57 56
58 2 52 56 59 58
59 2 61 65 70 69
60 2 65 69 72 71
61 2 11 9 10 25
62 2 10 11 12 26
63 2 18 19 20 27
64 2 19 17 18 28
65 2 2 1 5 29
66 2 1 2 6 30
67 2 43 40 41 44
68 2 41 43 45 46
69 2 56 48 52 57
70 2 52 56 58 59
71 2 69 61 65 70
72 2 65 69 71 72

