LAMMPS Description

     18  atoms
     18  bonds
     27  angles
     36  dihedrals
     18  impropers

     16  atom types
     17  bond types
     20  angle types
     28  dihedral types
     4  improper types

  -100.0 100.0 xlo xhi
  -100.0 100.0 ylo yhi
  -100.0 100.0 zlo zhi

Masses
    
    # PEDOT
    1 32.06
    2 12.011
    3 1.008
    4 15.999
    5 12.011
    6 1.008
    7 12.011
    # TOS
    8  1.008
    9  12.011
    10 1.008
    11 12.011
    12 32.06
    13 15.999
    14 12.011
    # SPCE
    15  16.00
    16  1.008
#--------------------------------------
Pair Coeffs
    # PEDOT
    1 0.25 3.55
    2 0.07 3.55
    3 0.03 2.42
    4 0.14 2.9
    5 0.066 3.5
    6 0.03 2.5
    7 0.07 3.55
    # TOS
    8   0.03 2.5
    9   0.07 3.55
    10  0.03 2.42
    11  0.066 3.5
    12  0.25 3.55
    13  0.17 2.96
    14  0.07 3.55
    # SPCE
    15  0.155300    3.166000
    16  0.000000    2.058000
#--------------------------------------
Bond Coeffs
    # PEDOT
    1 268.0 1.529
    2 320.0 1.41
    3 340.0 1.09
    4 250.0 1.76
    5 450.0 1.364
    6 469.0 1.4
    7 469.0 1.4
    8 469.0 1.4
    9 367.0 1.08
    # TOS
    10  340.0 1.09
    11  317.0 1.51
    12  700.0 1.44
    13  469.0 1.4
    14  469.0 1.4
    15  367.0 1.08
    16  340.0 1.77
    # SPCE
    17  1000.000000    1.000000
#--------------------------------------
Angle Coeffs
    # PEDOT
    1  50.0 109.5
    2  33.0 107.8
    3  35.0 109.5
    4  37.5 110.7
    5  75.0 111.0
    6  63.0 120.0
    7  63.0 120.0
    8  70.0 120.0
    9  70.0 120.0
    10 85.0 119.4
    11 85.0 119.4
    12 35.0 120.0
    # TOS
    11  33.0 107.8
    12  35.0 109.5
    13  63.0 120.0
    14  63.0 120.0
    15  70.0 120.0
    16  35.0 120.0
    17  85.0 119.4
    18  104.0 119.0
    19  74.0 107.2
    # SPCE
    20  1000.000000  109.470000
#--------------------------------------
Dihedral Coeffs
    # PEDOT
    1  -0.55 0.0 0.0 0.0
    2  0.0 0.0 0.468 0.0
    3  0.0 0.0 0.3 0.0
    4  0.0 0.0 0.76 0.0
    5  0.0 3.0 0.0 0.0
    6  0.0 3.0 0.0 0.0
    7  0.0 7.25 0.0 0.0
    8  0.0 7.25 0.0 0.0
    9  0.0 7.25 0.0 0.0
    10 0.0 7.25 0.0 0.0
    11 0.0 7.25 0.0 0.0
    12 0.0 7.25 0.0 0.0
    13 0.0 7.25 0.0 0.0
    14 0.0 7.25 0.0 0.0
    15 0.0 7.25 0.0 0.0
    16 0.0 7.25 0.0 0.0
    17 0.0 7.25 0.0 0.0
    18 0.0 7.25 0.0 0.0
    # TOS
    19  0.0 0.0 0.0 0.0
    20  0.0 7.25 0.0 0.0
    21  0.0 7.25 0.0 0.0
    22  0.0 7.25 0.0 0.0
    23  0.0 7.25 0.0 0.0
    24  0.0 7.25 0.0 0.0
    25  0.0 7.25 0.0 0.0
    26  0.0 7.25 0.0 0.0
    27  0.0 7.25 0.0 0.0
    28  0.0 0.0 0.0 0.0
#--------------------------------------
Improper Coeffs
    # PEDOT
    1 2.5 180
    2 2.5 180
    # TOS
    3 2.5 180
    4 2.5 180


Atoms

1  1 12 1.204674 -0.077 2.039 0.037
2  1 13 -0.688312 0.93 2.388 1.062
3  1 13 -0.685933 0.294 2.422 -1.341
4  1 13 -0.688668 -1.463 2.388 0.416
5  1 14 -0.141540 -0.072 0.224 0.017
6  1 9 -0.009351 -0.32 -0.478 1.198
7  1 9 -0.386391 -0.331 -1.868 1.195
8  1 9 0.410528 -0.094 -2.59 0.018
9  1 9 -0.415539 0.151 -1.875 -1.153
10 1 9 -0.026815 0.163 -0.478 -1.157
11 1 10 0.121926 -0.502 0.075 2.115
12 1 10 0.152981 -0.524 -2.405 2.123
13 1 10 0.159369 0.337 -2.414 -2.082
14 1 10 0.137556 0.355 0.082 -2.068
15 1 11 -0.496113 -0.1 -4.101 0.033
16 1 8 0.117088 0.041 -4.51 -0.973
17 1 8 0.117248 0.702 -4.496 0.67
18 1 8 0.117294 -1.047 -4.493 0.424

Bonds

1  12  1 3
2  12  1 2
3  12  1 4
4  16  1 5
5  14  5 10
6  13  9 10
7  13  8 9
8  13  7 8
9  13  6 7
10 14  5 6
11 15  6 11
12 15  7 12
13 15  9 13
14 15  10 14
15 11  8 15
16 10  15 16
17 10  15 17
18 10  15 18

Angles

1  11  16 15 17
2  11  16 15 18
3  11  17 15 18
4  12  8 15 16
5  12  8 15 17
6  12  8 15 18
7  13  6 7 8
8  13  7 8 9
9  13  8 9 10
10 14  5 6 7
11 14  5 10 9
12 15  9 8 15
13 15  7 8 15
14 16  6 7 12
15 16  7 6 11
16 16  8 9 13
17 16  8 7 12
18 16  9 10 14
19 16  10 9 13
20 17  1 5 6
21 17  1 5 10
22 18  2 1 3
23 18  2 1 4
24 18  3 1 4
25 19  2 1 5
26 19  3 1 5
27 19  4 1 5

Dihedrals

1  19 9 8 15 16
2  19 7 8 15 16
3  19 9 8 15 17
4  19 7 8 15 17
5  19 9 8 15 18
6  19 7 8 15 18
7  20 1 5 6 11
8  20 1 5 10 14
9  20 7 6 5 10
10 20 6 5 10 9
11 20 1 5 6 7
12 20 1 5 10 9
13 20 10 5 6 11
14 20 6 5 10 14
15 21 5 10 9 13
16 21 5 6 7 12
17 22 10 9 8 15
18 22 6 7 8 15
19 23 13 9 8 15
20 23 12 7 8 15
21 24 6 7 8 9
22 24 7 8 9 10
23 25 5 10 9 8
24 25 5 6 7 8
25 26 7 8 9 13
26 26 8 9 10 14
27 26 8 7 6 11
28 26 9 8 7 12
29 27 11 6 7 12
30 27 13 9 10 14
31 28 3 1 5 6
32 28 2 1 5 6
33 28 4 1 5 6
34 28 3 1 5 10
35 28 2 1 5 10
36 28 4 1 5 10

Impropers

1  3 6 7 12 8
2  3 8 9 13 10
3  3 5 9 10 14
4  3 5 6 7 11
5  3 7 8 15 9
6  3 6 7 8 12
7  3 8 6 7 12
8  3 8 9 10 13
9  3 10 8 9 13
10 3 7 5 6 11
11 3 9 5 10 14
12 3 7 8 9 15
13 3 9 7 8 15
14 3 5 6 11 7
15 3 5 10 14 9
16 4 1 5 10 6
17 4 1 5 6 10
18 4 6 1 5 10

