LAMMPS Description

     80  atoms
     91  bonds
     154  angles
     194  dihedrals
     72  impropers

     16  atom types
     17  bond types
     20  angle types
     28  dihedral types
     4  improper types

  -100.0 100.0 xlo xhi
  -100.0 100.0 ylo yhi
  -100.0 100.0 zlo zhi

Masses
    
    # PEDOT
    1 32.06
    2 12.011
    3 1.008
    4 15.999
    5 12.011
    6 1.008
    7 12.011
    # TOS
    8  1.008
    9  12.011
    10 1.008
    11 12.011
    12 32.06
    13 15.999
    14 12.011
    # SPCE
    15  16.00
    16  1.008
#--------------------------------------
Pair Coeffs
    # PEDOT
    1 0.25 3.55
    2 0.07 3.55
    3 0.03 2.42
    4 0.14 2.9
    5 0.066 3.5
    6 0.03 2.5
    7 0.07 3.55
    # TOS
    8   0.03 2.5
    9   0.07 3.55
    10  0.03 2.42
    11  0.066 3.5
    12  0.25 3.55
    13  0.17 2.96
    14  0.07 3.55
    # SPCE
    15  0.155300    3.166000
    16  0.000000    2.058000
#--------------------------------------
Bond Coeffs
    # PEDOT
    1 268.0 1.529
    2 320.0 1.41
    3 340.0 1.09
    4 250.0 1.76
    5 450.0 1.364
    6 469.0 1.4
    7 469.0 1.4
    8 469.0 1.4
    9 367.0 1.08
    # TOS
    10  340.0 1.09
    11  317.0 1.51
    12  700.0 1.44
    13  469.0 1.4
    14  469.0 1.4
    15  367.0 1.08
    16  340.0 1.77
    # SPCE
    17  1000.000000    1.000000
#--------------------------------------
Angle Coeffs
    # PEDOT
    1  50.0 109.5
    2  33.0 107.8
    3  35.0 109.5
    4  37.5 110.7
    5  75.0 111.0
    6  63.0 120.0
    7  63.0 120.0
    8  70.0 120.0
    9  70.0 120.0
    10 85.0 119.4
    11 85.0 119.4
    12 35.0 120.0
    # TOS
    11  33.0 107.8
    12  35.0 109.5
    13  63.0 120.0
    14  63.0 120.0
    15  70.0 120.0
    16  35.0 120.0
    17  85.0 119.4
    18  104.0 119.0
    19  74.0 107.2
    # SPCE
    20  1000.000000  109.470000
#--------------------------------------
Dihedral Coeffs
    # PEDOT
    1  -0.55 0.0 0.0 0.0
    2  0.0 0.0 0.468 0.0
    3  0.0 0.0 0.3 0.0
    4  0.0 0.0 0.76 0.0
    5  0.0 3.0 0.0 0.0
    6  0.0 3.0 0.0 0.0
    7  0.0 7.25 0.0 0.0
    8  0.0 7.25 0.0 0.0
    9  0.0 7.25 0.0 0.0
    10 0.0 7.25 0.0 0.0
    11 0.0 7.25 0.0 0.0
    12 0.0 7.25 0.0 0.0
    13 0.0 7.25 0.0 0.0
    14 0.0 7.25 0.0 0.0
    15 0.0 7.25 0.0 0.0
    16 0.0 7.25 0.0 0.0
    17 0.0 7.25 0.0 0.0
    18 0.0 7.25 0.0 0.0
    # TOS
    19  0.0 0.0 0.0 0.0
    20  0.0 7.25 0.0 0.0
    21  0.0 7.25 0.0 0.0
    22  0.0 7.25 0.0 0.0
    23  0.0 7.25 0.0 0.0
    24  0.0 7.25 0.0 0.0
    25  0.0 7.25 0.0 0.0
    26  0.0 7.25 0.0 0.0
    27  0.0 7.25 0.0 0.0
    28  0.0 0.0 0.0 0.0
#--------------------------------------
Improper Coeffs
    # PEDOT
    1 2.5 180
    2 2.5 180
    # TOS
    3 2.5 180
    4 2.5 180


Atoms

1 1 7 0.101862 -7.88 7.407 2.563
2 1 7 0.181420 -6.492 7.402 2.576
3 1 5 -0.094079 -6.507 9.687 2.191
4 1 5 -0.151152 -7.846 9.698 2.905
5 1 2 0.131683 -8.449 6.115 2.561
6 1 2 0.045659 -5.932 6.105 2.603
7 1 6 0.171392 -5.899 10.54 2.491
8 1 6 0.182702 -8.445 10.552 2.591
9 1 2 0.003834 -9.816 5.815 2.542
10 1 7 0.139411 -10.385 4.522 2.562
11 1 7 0.182247 -11.771 4.527 2.53
12 1 2 0.255469 -12.336 5.83 2.502
13 1 5 -0.122690 -10.437 2.243 2.975
14 1 5 -0.029801 -11.754 2.232 2.219
15 1 6 0.164306 -9.832 1.378 2.708
16 1 6 0.168664 -12.376 1.393 2.532
17 1 2 -0.320158 -13.693 6.124 2.46
18 1 7 0.389750 -14.277 7.42 2.435
19 1 7 0.208929 -15.682 7.401 2.401
20 1 2 -0.215849 -16.176 6.115 2.417
21 1 5 -0.197182 -14.347 9.738 2.648
22 1 5 0.077889 -15.667 9.646 1.905
23 1 6 0.171263 -14.5 9.854 3.725
24 1 6 0.093000 -15.506 9.559 0.824
25 1 4 -0.120149 -9.655 3.403 2.615
26 1 4 -0.225897 -12.514 3.422 2.516
27 1 4 -0.314810 -16.424 8.518 2.357
28 1 4 -0.128978 -13.558 8.53 2.45
29 1 4 -0.090570 -8.612 8.526 2.558
30 1 4 -0.128631 -5.75 8.512 2.554
31 1 1 -0.176523 -7.194 4.884 2.598
32 1 1 -0.183505 -11.075 7.051 2.501
33 1 1 0.149713 -14.966 4.901 2.467
34 1 6 0.140156 -6.636 9.687 1.104
35 1 6 0.150440 -7.717 9.715 3.992
36 1 6 0.171973 -13.731 10.552 2.268
37 1 6 0.150428 -16.277 10.526 2.111
38 1 6 0.127765 -11.594 2.191 1.138
39 1 6 0.148413 -10.601 2.263 4.057
40 1 2 0.059830 -4.567 5.8 2.607
41 1 7 0.163955 -4.006 4.503 2.626
42 1 1 -0.176585 -3.305 7.022 2.606
43 1 7 0.104775 -2.618 4.498 2.62
44 1 4 -0.107161 -4.748 3.393 2.652
45 1 2 0.127579 -2.05 5.791 2.62
46 1 4 -0.115185 -1.886 3.379 2.607
47 1 5 -0.138767 -3.985 2.215 2.991
48 1 2 0.022951 -0.682 6.091 2.611
49 1 5 -0.092385 -2.657 2.212 2.258
50 1 6 0.149414 -3.84 2.202 4.076
51 1 6 0.178074 -4.597 1.365 2.69
52 1 7 0.111494 -0.115 7.385 2.608
53 1 1 -0.175463 0.578 4.855 2.627
54 1 6 0.138492 -2.802 2.207 1.172
55 1 6 0.171022 -2.054 1.353 2.552
56 1 7 0.211320 1.272 7.381 2.604
57 1 4 -0.107929 -0.846 8.504 2.622
58 1 2 0.231174 1.838 6.077 2.625
59 1 4 -0.232787 2.015 8.486 2.579
60 1 5 -0.140701 -0.071 9.671 2.975
61 1 2 -0.322876 3.196 5.785 2.63
62 1 5 -0.034110 1.259 9.669 2.245
63 1 6 0.168695 -0.672 10.531 2.682
64 1 6 0.155838 0.072 9.671 4.061
65 1 7 0.389565 3.781 4.489 2.642
66 1 1 0.156098 4.467 7.009 2.598
67 1 6 0.170560 1.875 10.514 2.553
68 1 6 0.131145 1.12 9.689 1.16
69 1 7 0.214843 5.187 4.51 2.648
70 1 4 -0.119555 3.064 3.379 2.642
71 1 2 -0.221677 5.679 5.796 2.622
72 1 4 -0.317105 5.931 3.394 2.677
73 1 5 -0.212182 3.849 2.17 2.433
74 1 3 0.289808 6.728 6.071 2.624
75 1 5 0.072509 5.184 2.266 3.149
76 1 6 0.176357 3.242 1.357 2.829
77 1 6 0.174616 3.981 2.05 1.354
78 1 6 0.153520 5.791 1.386 2.934
79 1 6 0.095606 5.045 2.357 4.232
80 1 3 0.286834 -17.224 5.841 2.393

Bonds

1 4 5 31
2 4 6 31
3 7 2 6
4 8 1 2
5 7 1 5
6 5 2 30
7 2 3 30
8 3 3 7
9 3 3 34
10 1 3 4
11 3 4 8
12 3 4 35
13 2 4 29
14 5 1 29
15 9 20 80
16 4 12 32
17 4 9 32
18 7 9 10
19 8 10 11
20 7 11 12
21 5 10 25
22 2 13 25
23 3 13 15
24 3 13 39
25 1 13 14
26 3 14 16
27 3 14 38
28 2 14 26
29 5 11 26
30 4 17 33
31 4 20 33
32 7 19 20
33 8 18 19
34 7 17 18
35 5 18 28
36 2 21 28
37 3 21 23
38 3 21 36
39 1 21 22
40 3 22 24
41 3 22 37
42 2 22 27
43 5 19 27
44 4 40 42
45 4 42 45
46 7 40 41
47 8 41 43
48 7 43 45
49 5 43 46
50 2 46 49
51 3 49 55
52 3 49 54
53 1 47 49
54 3 47 50
55 3 47 51
56 2 44 47
57 5 41 44
58 4 48 53
59 4 53 58
60 7 48 52
61 8 52 56
62 7 56 58
63 5 52 57
64 2 57 60
65 3 60 64
66 3 60 63
67 1 60 62
68 3 62 67
69 3 62 68
70 2 59 62
71 5 56 59
72 4 61 66
73 4 66 71
74 7 61 65
75 8 65 69
76 7 69 71
77 5 65 70
78 2 70 73
79 3 73 76
80 3 73 77
81 1 73 75
82 3 75 79
83 3 75 78
84 2 72 75
85 5 69 72
86 9 71 74
87 6 5 9
88 6 12 17
89 6 6 40
90 6 45 48
91 6 58 61

Angles

1 1 3 4 29
2 1 4 3 30
3 1 13 14 26
4 1 14 13 25
5 1 21 22 27
6 1 22 21 28
7 1 46 49 47
8 1 44 47 49
9 1 59 62 60
10 1 57 60 62
11 1 72 75 73
12 1 70 73 75
13 2 7 3 34
14 2 8 4 35
15 2 15 13 39
16 2 16 14 38
17 2 23 21 36
18 2 24 22 37
19 2 50 47 51
20 2 54 49 55
21 2 63 60 64
22 2 67 62 68
23 2 76 73 77
24 2 78 75 79
25 3 15 13 25
26 3 25 13 39
27 3 16 14 26
28 3 26 14 38
29 3 24 22 27
30 3 27 22 37
31 3 23 21 28
32 3 28 21 36
33 3 8 4 29
34 3 29 4 35
35 3 7 3 30
36 3 30 3 34
37 3 44 47 50
38 3 44 47 51
39 3 46 49 55
40 3 46 49 54
41 3 57 60 64
42 3 57 60 63
43 3 59 62 67
44 3 59 62 68
45 3 70 73 76
46 3 70 73 77
47 3 72 75 79
48 3 72 75 78
49 4 3 4 8
50 4 3 4 35
51 4 4 3 7
52 4 4 3 34
53 4 13 14 16
54 4 13 14 38
55 4 14 13 15
56 4 14 13 39
57 4 21 22 24
58 4 21 22 37
59 4 22 21 23
60 4 22 21 36
61 4 47 49 55
62 4 47 49 54
63 4 49 47 50
64 4 49 47 51
65 4 60 62 67
66 4 60 62 68
67 4 62 60 64
68 4 62 60 63
69 4 73 75 79
70 4 73 75 78
71 4 75 73 76
72 4 75 73 77
73 5 2 30 3
74 5 1 29 4
75 5 10 25 13
76 5 11 26 14
77 5 18 28 21
78 5 19 27 22
79 5 41 44 47
80 5 43 46 49
81 5 52 57 60
82 5 56 59 62
83 5 65 70 73
84 5 69 72 75
85 6 1 5 9
86 6 2 6 40
87 6 5 9 10
88 6 11 12 17
89 6 12 17 18
90 6 6 40 41
91 6 43 45 48
92 6 45 48 52
93 6 56 58 61
94 6 58 61 65
95 7 1 2 6
96 7 2 1 5
97 7 10 11 12
98 7 9 10 11
99 7 18 19 20
100 7 17 18 19
101 7 41 43 45
102 7 40 41 43
103 7 52 56 58
104 7 48 52 56
105 7 65 69 71
106 7 61 65 69
107 8 9 10 25
108 8 12 11 26
109 8 20 19 27
110 8 17 18 28
111 8 5 1 29
112 8 6 2 30
113 8 40 41 44
114 8 45 43 46
115 8 48 52 57
116 8 58 56 59
117 8 61 65 70
118 8 71 69 72
119 9 11 10 25
120 9 10 11 26
121 9 18 19 27
122 9 19 18 28
123 9 2 1 29
124 9 1 2 30
125 9 43 41 44
126 9 41 43 46
127 9 56 52 57
128 9 52 56 59
129 9 69 65 70
130 9 65 69 72
131 10 9 5 31
132 10 31 6 40
133 10 17 12 32
134 10 5 9 32
135 10 12 17 33
136 10 6 40 42
137 10 42 45 48
138 10 45 48 53
139 10 53 58 61
140 10 58 61 66
141 11 1 5 31
142 11 2 6 31
143 11 11 12 32
144 11 10 9 32
145 11 18 17 33
146 11 19 20 33
147 11 41 40 42
148 11 42 45 43
149 11 52 48 53
150 11 53 58 56
151 11 65 61 66
152 11 66 71 69
153 12 19 20 80
154 12 69 71 74

Dihedrals

1 1 25 13 14 26
2 1 27 22 21 28
3 1 29 4 3 30
4 1 44 47 49 46
5 1 57 60 62 59
6 1 70 73 75 72
7 2 16 14 13 25
8 2 25 13 14 38
9 2 15 13 14 26
10 2 26 14 13 39
11 2 23 21 22 27
12 2 27 22 21 36
13 2 24 22 21 28
14 2 28 21 22 37
15 2 7 3 4 29
16 2 29 4 3 34
17 2 8 4 3 30
18 2 30 3 4 35
19 2 44 47 49 55
20 2 44 47 49 54
21 2 46 49 47 50
22 2 46 49 47 51
23 2 57 60 62 67
24 2 57 60 62 68
25 2 59 62 60 64
26 2 59 62 60 63
27 2 70 73 75 79
28 2 70 73 75 78
29 2 72 75 73 76
30 2 72 75 73 77
31 3 7 3 4 8
32 3 7 3 4 35
33 3 8 4 3 34
34 3 15 13 14 16
35 3 15 13 14 38
36 3 16 14 13 39
37 3 23 21 22 24
38 3 23 21 22 37
39 3 24 22 21 36
40 3 34 3 4 35
41 3 36 21 22 37
42 3 38 14 13 39
43 3 50 47 49 55
44 3 50 47 49 54
45 3 51 47 49 55
46 3 51 47 49 54
47 3 63 60 62 67
48 3 63 60 62 68
49 3 64 60 62 67
50 3 64 60 62 68
51 3 76 73 75 79
52 3 76 73 75 78
53 3 77 73 75 79
54 3 77 73 75 78
55 4 2 30 3 7
56 4 1 29 4 8
57 4 10 25 13 15
58 4 11 26 14 16
59 4 18 28 21 23
60 4 19 27 22 24
61 4 2 30 3 34
62 4 1 29 4 35
63 4 18 28 21 36
64 4 19 27 22 37
65 4 11 26 14 38
66 4 10 25 13 39
67 4 41 44 47 50
68 4 41 44 47 51
69 4 43 46 49 54
70 4 43 46 49 55
71 4 52 57 60 63
72 4 52 57 60 64
73 4 56 59 62 67
74 4 56 59 62 68
75 4 65 70 73 76
76 4 65 70 73 77
77 4 69 72 75 78
78 4 69 72 75 79
79 5 3 30 2 6
80 5 4 29 1 5
81 5 9 10 25 13
82 5 12 11 26 14
83 5 17 18 28 21
84 5 20 19 27 22
85 5 40 41 44 47
86 5 45 43 46 49
87 5 48 52 57 60
88 5 58 56 59 62
89 5 61 65 70 73
90 5 71 69 72 75
91 6 1 2 30 3
92 6 2 1 29 4
93 6 11 10 25 13
94 6 10 11 26 14
95 6 19 18 28 21
96 6 18 19 27 22
97 6 43 41 44 47
98 6 41 43 46 49
99 6 56 52 57 60
100 6 52 56 59 62
101 6 69 65 70 73
102 6 65 69 72 75
103 7 31 5 9 32
104 7 31 6 40 42
105 7 32 12 17 33
106 7 42 45 48 53
107 7 53 58 61 66
108 8 25 10 9 32
109 8 26 11 12 32
110 8 27 19 20 33
111 8 28 18 17 33
112 8 29 1 5 31
113 8 30 2 6 31
114 8 42 40 41 44
115 8 42 45 43 46
116 8 53 48 52 57
117 8 53 58 56 59
118 8 66 61 65 70
119 8 66 71 69 72
120 9 25 10 11 26
121 9 27 19 18 28
122 9 29 1 2 30
123 9 44 41 43 46
124 9 57 52 56 59
125 9 70 65 69 72
126 10 10 9 5 31
127 10 31 6 40 41
128 10 18 17 12 32
129 10 1 5 9 32
130 10 11 12 17 33
131 10 2 6 40 42
132 10 42 45 48 52
133 10 43 45 48 53
134 10 53 58 61 65
135 10 56 58 61 66
136 11 2 1 5 31
137 11 1 2 6 31
138 11 10 11 12 32
139 11 11 10 9 32
140 11 19 18 17 33
141 11 18 19 20 33
142 11 42 40 41 43
143 11 41 43 45 42
144 11 53 48 52 56
145 11 52 56 58 53
146 11 66 61 65 69
147 11 65 69 71 66
148 12 5 9 10 25
149 12 17 12 11 26
150 12 12 17 18 28
151 12 9 5 1 29
152 12 30 2 6 40
153 12 6 40 41 44
154 12 46 43 45 48
155 12 45 48 52 57
156 12 59 56 58 61
157 12 58 61 65 70
158 13 12 11 10 25
159 13 9 10 11 26
160 13 17 18 19 27
161 13 20 19 18 28
162 13 6 2 1 29
163 13 5 1 2 30
164 13 44 41 43 45
165 13 40 41 43 46
166 13 57 52 56 58
167 13 48 52 56 59
168 13 70 65 69 71
169 13 61 65 69 72
170 14 27 19 20 80
171 14 72 69 71 74
172 15 5 1 2 6
173 15 9 10 11 12
174 15 17 18 19 20
175 15 40 41 43 45
176 15 48 52 56 58
177 15 61 65 69 71
178 16 1 5 9 10
179 16 2 6 40 41
180 16 11 12 17 18
181 16 43 45 48 52
182 16 56 58 61 65
183 17 1 2 6 40
184 17 2 1 5 9
185 17 10 11 12 17
186 17 5 9 10 11
187 17 12 17 18 19
188 17 41 43 45 48
189 17 6 40 41 43
190 17 52 56 58 61
191 17 45 48 52 56
192 17 58 61 65 69
193 18 18 19 20 80
194 18 65 69 71 74

Impropers

1 1 19 20 80 33
2 1 66 71 74 69
3 1 1 5 31 9
4 1 2 6 31 40
5 1 5 9 32 10
6 1 11 12 32 17
7 1 12 17 33 18
8 1 6 40 42 41
9 1 43 42 45 48
10 1 45 48 53 52
11 1 56 53 58 61
12 1 58 61 66 65
13 1 19 20 33 80
14 1 69 66 71 74
15 1 1 5 9 31
16 1 2 6 40 31
17 1 11 12 17 32
18 1 10 5 9 32
19 1 18 12 17 33
20 1 41 6 40 42
21 1 42 45 48 43
22 1 52 45 48 53
23 1 53 58 61 56
24 1 65 58 61 66
25 1 66 69 71 74
26 1 33 19 20 80
27 1 5 9 10 32
28 1 6 40 41 42
29 1 9 1 5 31
30 1 12 17 18 33
31 1 17 11 12 32
32 1 31 2 6 40
33 1 45 48 52 53
34 1 42 43 45 48
35 1 58 61 65 66
36 1 53 56 58 61
37 2 5 1 2 29
38 2 6 1 2 30
39 2 9 10 11 25
40 2 12 10 11 26
41 2 17 18 19 28
42 2 20 18 19 27
43 2 40 41 43 44
44 2 45 41 43 46
45 2 48 52 56 57
46 2 58 52 56 59
47 2 61 65 69 70
48 2 71 65 69 72
49 2 2 1 29 5
50 2 1 2 30 6
51 2 9 10 25 11
52 2 10 11 26 12
53 2 17 18 28 19
54 2 18 19 27 20
55 2 40 41 44 43
56 2 41 43 46 45
57 2 48 52 57 56
58 2 52 56 59 58
59 2 61 65 70 69
60 2 65 69 72 71
61 2 11 9 10 25
62 2 10 11 12 26
63 2 18 19 20 27
64 2 19 17 18 28
65 2 2 1 5 29
66 2 1 2 6 30
67 2 43 40 41 44
68 2 41 43 45 46
69 2 56 48 52 57
70 2 52 56 58 59
71 2 69 61 65 70
72 2 65 69 71 72

