LAMMPS Description

     1  atoms
     0  bonds
     0  angles
     0  dihedrals
     0  impropers

     17  atom types
     17  bond types
     20  angle types
     28  dihedral types
     4  improper types

  -100.0 100.0 xlo xhi
  -100.0 100.0 ylo yhi
  -100.0 100.0 zlo zhi

Masses
    
    # PEDOT
    1 32.06
    2 12.011
    3 1.008
    4 15.999
    5 12.011
    6 1.008
    7 12.011
    # TOS
    8  1.008
    9  12.011
    10 1.008
    11 12.011
    12 32.06
    13 15.999
    14 12.011
    # SPCE
    15  16.00
    16  1.008
    # Na
    17 22.990 
#--------------------------------------
Pair Coeffs
    # PEDOT
    1 0.25 3.55
    2 0.07 3.55
    3 0.03 2.42
    4 0.14 2.9
    5 0.066 3.5
    6 0.03 2.5
    7 0.07 3.55
    # TOS
    8   0.03 2.5
    9   0.07 3.55
    10  0.03 2.42
    11  0.066 3.5
    12  0.25 3.55
    13  0.17 2.96
    14  0.07 3.55
    # SPCE
    15  0.155300    3.166000
    16  0.000000    2.058000
    # Na
    17 0.002772 1.8678 
#--------------------------------------
Bond Coeffs
    # PEDOT
    1 268.0 1.529
    2 320.0 1.41
    3 340.0 1.09
    4 250.0 1.76
    5 450.0 1.364
    6 469.0 1.4
    7 469.0 1.4
    8 469.0 1.4
    9 367.0 1.08
    # TOS
    10  340.0 1.09
    11  317.0 1.51
    12  700.0 1.44
    13  469.0 1.4
    14  469.0 1.4
    15  367.0 1.08
    16  340.0 1.77
    # SPCE
    17  1000.000000    1.000000
#--------------------------------------
Angle Coeffs
    # PEDOT
    1  50.0 109.5
    2  33.0 107.8
    3  35.0 109.5
    4  37.5 110.7
    5  75.0 111.0
    6  63.0 120.0
    7  63.0 120.0
    8  70.0 120.0
    9  70.0 120.0
    10 85.0 119.4
    11 85.0 119.4
    12 35.0 120.0
    # TOS
    11  33.0 107.8
    12  35.0 109.5
    13  63.0 120.0
    14  63.0 120.0
    15  70.0 120.0
    16  35.0 120.0
    17  85.0 119.4
    18  104.0 119.0
    19  74.0 107.2
    # SPCE
    20  1000.000000  109.470000
#--------------------------------------
Dihedral Coeffs
    # PEDOT
    1  -0.55 0.0 0.0 0.0
    2  0.0 0.0 0.468 0.0
    3  0.0 0.0 0.3 0.0
    4  0.0 0.0 0.76 0.0
    5  0.0 3.0 0.0 0.0
    6  0.0 3.0 0.0 0.0
    7  0.0 7.25 0.0 0.0
    8  0.0 7.25 0.0 0.0
    9  0.0 7.25 0.0 0.0
    10 0.0 7.25 0.0 0.0
    11 0.0 7.25 0.0 0.0
    12 0.0 7.25 0.0 0.0
    13 0.0 7.25 0.0 0.0
    14 0.0 7.25 0.0 0.0
    15 0.0 7.25 0.0 0.0
    16 0.0 7.25 0.0 0.0
    17 0.0 7.25 0.0 0.0
    18 0.0 7.25 0.0 0.0
    # TOS
    19  0.0 0.0 0.0 0.0
    20  0.0 7.25 0.0 0.0
    21  0.0 7.25 0.0 0.0
    22  0.0 7.25 0.0 0.0
    23  0.0 7.25 0.0 0.0
    24  0.0 7.25 0.0 0.0
    25  0.0 7.25 0.0 0.0
    26  0.0 7.25 0.0 0.0
    27  0.0 7.25 0.0 0.0
    28  0.0 0.0 0.0 0.0
#--------------------------------------
Improper Coeffs
    # PEDOT
    1 2.5 180
    2 2.5 180
    # TOS
    3 2.5 180
    4 2.5 180


Atoms

1 1 17 1.0 0.0 0.0 0.0

